 Gaussian 09, Revision C.01,
 Gaussian 09:  EM64L-G09RevC.01 23-Sep-2011

 ------------------------------------------------------------
 #HF/6-31G* SCF=tight Test Pop=MK iop(6/33=2) iop(6/42=6) opt
 ------------------------------------------------------------

 99/9=1/99;
 ---------------------
 remark line goes here
 ---------------------
 Charge = -1 Multiplicity = 1

 SCF Done:  E(RHF) =  -1752.29012110     A.U. after   16 cycles
 SCF Done:  E(RHF) =  -1752.42917048     A.U. after   14 cycles
 SCF Done:  E(RHF) =  -1752.54677231     A.U. after   14 cycles
 SCF Done:  E(RHF) =  -1752.55816832     A.U. after   16 cycles
 SCF Done:  E(RHF) =  -1752.55753904     A.U. after   16 cycles
 SCF Done:  E(RHF) =  -1752.55097067     A.U. after   14 cycles
 SCF Done:  E(RHF) =  -1752.54594729     A.U. after   14 cycles
 SCF Done:  E(RHF) =  -1752.55899451     A.U. after   14 cycles
 SCF Done:  E(RHF) =  -1752.56269833     A.U. after   14 cycles
 SCF Done:  E(RHF) =  -1752.56335528     A.U. after   13 cycles
 SCF Done:  E(RHF) =  -1752.56469420     A.U. after   13 cycles
 SCF Done:  E(RHF) =  -1752.56471282     A.U. after   11 cycles
 SCF Done:  E(RHF) =  -1752.56476173     A.U. after   13 cycles
 SCF Done:  E(RHF) =  -1752.56477171     A.U. after   12 cycles
 SCF Done:  E(RHF) =  -1752.56477400     A.U. after   12 cycles
 SCF Done:  E(RHF) =  -1752.56477477     A.U. after   10 cycles
 SCF Done:  E(RHF) =  -1752.56477483     A.U. after    8 cycles
 SCF Done:  E(RHF) =  -1752.56477488     A.U. after    7 cycles
 SCF Done:  E(RHF) =  -1752.56477489     A.U. after    6 cycles
 SCF Done:  E(RHF) =  -1752.56477489     A.U. after    6 cycles
 Optimization completed.
    -- Stationary point found.

                         Standard orientation:
 ---------------------------------------------------------------------
 Center     Atomic      Atomic             Coordinates (Angstroms)
 Number     Number       Type             X           Y           Z
 ---------------------------------------------------------------------
      1          6           0        4.408756   -2.707112   -1.989222
      2          6           0        4.125552   -1.534846   -1.054085
      3          6           0        3.324725   -0.416349   -1.749468
      4          6           0        2.393861    0.314441   -0.771726
      5          7           0        1.804764    1.457318   -1.425399
      6          6           0        1.277731    2.556939   -0.760935
      7          6           0        0.637295    3.547902   -1.512282
      8          6           0        0.140673    4.687764   -0.918046
      9          6           0        0.280876    4.869159    0.447156
     10         17           0       -0.332100    6.322309    1.201891
     11          6           0        0.898107    3.901065    1.209044
     12          6           0        1.388309    2.749280    0.614231
     13          6           0        1.427039   -0.737895   -0.250010
     14          6           0        0.048652   -0.636568   -0.288590
     15          6           0       -0.774740   -1.697581    0.097309
     16          6           0       -0.160140   -2.878300    0.504428
     17          6           0        1.219056   -2.997903    0.533044
     18          6           0        2.016659   -1.923650    0.182778
     19          7           0        3.438605   -1.978800    0.172791
     20          6           0        4.214510   -2.339364    1.235654
     21          6           0        3.552710   -2.582350    2.578125
     22          8           0        5.409889   -2.446826    1.130807
     23          6           0       -2.257610   -1.583123    0.044540
     24          6           0       -3.052239   -2.099942    1.066002
     25          6           0       -4.432221   -2.008019    1.005538
     26          6           0       -5.065001   -1.403415   -0.073387
     27          6           0       -4.272499   -0.885746   -1.090155
     28          6           0       -2.891969   -0.970897   -1.034648
     29          6           0       -6.610178   -1.313910   -0.143713
     30          8           0       -7.049666   -0.761160   -1.151434
     31          8           0       -7.200021   -1.809097    0.815932
     32          1           0        0.536528    3.421478   -2.576087
     33          1           0        1.349577    1.246808   -2.286742
     34          1           0        3.005205    0.683537    0.043835
     35          1           0        4.014813    0.288891   -2.199754
     36          1           0        2.717420   -0.829944   -2.550770
     37          1           0        5.066977   -1.124938   -0.723773
     38          1           0        3.484648   -3.196081   -2.282289
     39          1           0       -2.302621   -0.584260   -1.849498
     40          1           0       -4.766204   -0.425639   -1.924721
     41          1           0       -5.048367   -2.398050    1.793067
     42          1           0        4.908914   -2.362062   -2.890441
     43          1           0       -2.585958   -2.556333    1.923322
     44          1           0        2.691211   -1.952962    2.750218
     45          1           0        3.235848   -3.616038    2.657971
     46          1           0        4.303984   -2.403147    3.334333
     47          1           0        1.669885   -3.933914    0.808841
     48          1           0       -0.767093   -3.725523    0.764765
     49          1           0       -0.407207    0.282367   -0.604255
     50          1           0        1.836769    2.001986    1.238823
     51          1           0        0.990544    4.031031    2.270963
     52          1           0       -0.350163    5.434616   -1.513251
     53          1           0        5.048297   -3.431511   -1.500369
 ---------------------------------------------------------------------

 The electronic state is 1-A.
 Alpha  occ. eigenvalues -- -104.76367 -20.46654 -20.29980 -20.29977 -15.53559
 Alpha  occ. eigenvalues --  -15.51949 -11.29357 -11.23238 -11.22955 -11.22243
 Alpha  occ. eigenvalues --  -11.21448 -11.20996 -11.19221 -11.19155 -11.17891
 Alpha  occ. eigenvalues --  -11.17817 -11.17756 -11.17701 -11.17392 -11.17354
 Alpha  occ. eigenvalues --  -11.17105 -11.16354 -11.16271 -11.16077 -11.14652
 Alpha  occ. eigenvalues --  -11.13379 -11.11867 -11.11808 -11.09969 -11.09953
 Alpha  occ. eigenvalues --  -11.08712 -10.49688  -7.96628  -7.96307  -7.96297
 Alpha  occ. eigenvalues --   -1.33647  -1.21494  -1.19761  -1.18987  -1.12354
 Alpha  occ. eigenvalues --   -1.09162  -1.08646  -1.05546  -1.03610  -1.02176
 Alpha  occ. eigenvalues --   -0.98349  -0.97340  -0.95749  -0.94579  -0.92641
 Alpha  occ. eigenvalues --   -0.90335  -0.89379  -0.88065  -0.82953  -0.79137
 Alpha  occ. eigenvalues --   -0.78970  -0.78197  -0.75499  -0.73730  -0.70577
 Alpha  occ. eigenvalues --   -0.70041  -0.69000  -0.66840  -0.62934  -0.62316
 Alpha  occ. eigenvalues --   -0.62042  -0.60869  -0.59692  -0.59205  -0.58241
 Alpha  occ. eigenvalues --   -0.56457  -0.56319  -0.55351  -0.54416  -0.54230
 Alpha  occ. eigenvalues --   -0.54098  -0.52903  -0.52783  -0.51705  -0.50551
 Alpha  occ. eigenvalues --   -0.50269  -0.50043  -0.49486  -0.48607  -0.48041
 Alpha  occ. eigenvalues --   -0.47002  -0.46626  -0.46597  -0.46217  -0.45286
 Alpha  occ. eigenvalues --   -0.44479  -0.44407  -0.43435  -0.42952  -0.42478
 Alpha  occ. eigenvalues --   -0.41293  -0.40603  -0.39829  -0.39146  -0.38540
 Alpha  occ. eigenvalues --   -0.36867  -0.35988  -0.35944  -0.35659  -0.33537
 Alpha  occ. eigenvalues --   -0.29337  -0.27253  -0.25909  -0.23341  -0.21742
 Alpha  occ. eigenvalues --   -0.21595  -0.20963  -0.19685  -0.18885
 Alpha virt. eigenvalues --    0.18236   0.19336   0.20308   0.20856   0.25495
 Alpha virt. eigenvalues --    0.25716   0.26360   0.27649   0.28627   0.28840
 Alpha virt. eigenvalues --    0.30235   0.31189   0.33333   0.33907   0.34347

 Mulliken atomic charges:
              1
     1  C   -0.479700
     2  C    0.069522
     3  C   -0.352058
     4  C    0.066073
     5  N   -0.846547
     6  C    0.381613
     7  C   -0.257881
     8  C   -0.157619
     9  C   -0.164238
    10  Cl  -0.027257
    11  C   -0.158960
    12  C   -0.258864
    13  C   -0.008059
    14  C   -0.262475
    15  C    0.027858
    16  C   -0.228398
    17  C   -0.205855
    18  C    0.282842
    19  N   -0.798229
    20  C    0.746281
    21  C   -0.581540
    22  O   -0.622546
    23  C    0.007436
    24  C   -0.227108
    25  C   -0.206233
    26  C   -0.134920
    27  C   -0.206051
    28  C   -0.222235
    29  C    0.783841
    30  O   -0.742041
    31  O   -0.741815
    32  H    0.201067
    33  H    0.370110
    34  H    0.190937
    35  H    0.186301
    36  H    0.167788
    37  H    0.213132
    38  H    0.164968
    39  H    0.164657
    40  H    0.225361
    41  H    0.225840
    42  H    0.150871
    43  H    0.171073
    44  H    0.200783
    45  H    0.191905
    46  H    0.201947
    47  H    0.202463
    48  H    0.216358
    49  H    0.226347
    50  H    0.215933
    51  H    0.223495
    52  H    0.224401
    53  H    0.189425
 Sum of Mulliken atomic charges =  -1.00000

 Dipole moment (field-independent basis, Debye):
    X=             26.5500    Y=              3.5989    Z=             -1.2683  Tot=             26.8228
 Quadrupole moment (field-independent basis, Debye-Ang):
   XX=           -441.3495   YY=           -220.0696   ZZ=           -184.8336
   XY=            -28.1741   XZ=             -9.0040   YZ=             -6.9917

 Normal termination of Gaussian 09 at Wed Jul 12 12:31:18 2017.
